<?xml version="1.0" encoding="UTF-8"?>

<!-- generated on 2021-12-28 23:13:05 by Eclipse SUMO GUI Version 1.10.0
<configuration xmlns:xsi="http://www.w3.org/2001/XMLSchema-instance" xsi:noNamespaceSchemaLocation="http://sumo.dlr.de/xsd/sumoConfiguration.xsd">

    <input>
        <net-file value="./environement/Plan.net.xml"/>
        <route-files value="./environement/plan.rou.xml"/>
    </input>

    <output>
        <tripinfo-output value="./environement/tripinfo.xml"/>
    </output>

    <traci_server>
        <remote-port value="56264"/>
    </traci_server>

</configuration>
-->

<tripinfos xmlns:xsi="http://www.w3.org/2001/XMLSchema-instance" xsi:noNamespaceSchemaLocation="http://sumo.dlr.de/xsd/tripinfo_file.xsd">
    <tripinfo id="flow_0.0" depart="0.00" departLane="E0_2" departPos="5.10" departSpeed="14.00" departDelay="0.00" arrival="14.00" arrivalLane="E2_2" arrivalPos="30.23" arrivalSpeed="13.41" duration="14.00" routeLength="186.30" waitingTime="0.00" waitingCount="0" stopTime="0.00" timeLoss="0.66" rerouteNo="0" devices="tripinfo_flow_0.0 routing_flow_0.0" vType="DEFAULT_VEHTYPE" speedFactor="1.01" vaporized=""/>
    <tripinfo id="flow_3.0" depart="0.00" departLane="E0_1" departPos="5.10" departSpeed="14.00" departDelay="0.00" arrival="17.00" arrivalLane="E4_0" arrivalPos="57.45" arrivalSpeed="13.40" duration="17.00" routeLength="212.94" waitingTime="0.00" waitingCount="0" stopTime="0.00" timeLoss="1.70" rerouteNo="0" devices="tripinfo_flow_3.0 routing_flow_3.0" vType="DEFAULT_VEHTYPE" speedFactor="1.03" vaporized=""/>
    <tripinfo id="flow_0.1" depart="5.00" departLane="E0_1" departPos="5.10" departSpeed="14.00" departDelay="1.40" arrival="20.00" arrivalLane="E2_1" arrivalPos="30.23" arrivalSpeed="12.78" duration="15.00" routeLength="186.30" waitingTime="0.00" waitingCount="0" stopTime="0.00" timeLoss="0.85" rerouteNo="0" devices="tripinfo_flow_0.1 routing_flow_0.1" vType="DEFAULT_VEHTYPE" speedFactor="1.01" vaporized=""/>
    <tripinfo id="flow_0.2" depart="10.00" departLane="E0_2" departPos="5.10" departSpeed="14.00" departDelay="2.80" arrival="24.00" arrivalLane="E2_2" arrivalPos="30.23" arrivalSpeed="13.58" duration="14.00" routeLength="186.30" waitingTime="0.00" waitingCount="0" stopTime="0.00" timeLoss="0.47" rerouteNo="0" devices="tripinfo_flow_0.2 routing_flow_0.2" vType="DEFAULT_VEHTYPE" speedFactor="1.01" vaporized=""/>
    <tripinfo id="flow_3.2" depart="8.00" departLane="E0_2" departPos="5.10" departSpeed="14.00" departDelay="0.80" arrival="26.00" arrivalLane="E4_0" arrivalPos="57.45" arrivalSpeed="14.14" duration="18.00" routeLength="212.94" waitingTime="0.00" waitingCount="0" stopTime="0.00" timeLoss="2.14" rerouteNo="0" devices="tripinfo_flow_3.2 routing_flow_3.2" vType="DEFAULT_VEHTYPE" speedFactor="1.05" vaporized=""/>
    <tripinfo id="my_car" depart="4.00" departLane="E0_0" departPos="5.10" departSpeed="0.00" departDelay="0.00" arrival="31.00" arrivalLane="E4_0" arrivalPos="57.45" arrivalSpeed="7.69" duration="27.00" routeLength="212.94" waitingTime="0.00" waitingCount="0" stopTime="0.00" timeLoss="5.18" rerouteNo="0" devices="tripinfo_my_car" vType="car" speedFactor="1.06" vaporized=""/>
    <tripinfo id="flow_0.3" depart="12.00" departLane="E0_0" departPos="5.10" departSpeed="14.00" departDelay="1.20" arrival="31.00" arrivalLane="E2_0" arrivalPos="30.23" arrivalSpeed="14.14" duration="19.00" routeLength="186.30" waitingTime="0.00" waitingCount="0" stopTime="0.00" timeLoss="6.82" rerouteNo="0" devices="tripinfo_flow_0.3 routing_flow_0.3" vType="DEFAULT_VEHTYPE" speedFactor="1.12" vaporized=""/>
    <tripinfo id="flow_2.0" depart="2.00" departLane="E3_0" departPos="5.10" departSpeed="14.00" departDelay="2.00" arrival="32.00" arrivalLane="E2_1" arrivalPos="30.23" arrivalSpeed="13.88" duration="30.00" routeLength="208.14" waitingTime="7.00" waitingCount="1" stopTime="0.00" timeLoss="15.12" rerouteNo="0" devices="tripinfo_flow_2.0 routing_flow_2.0" vType="DEFAULT_VEHTYPE" speedFactor="1.08" vaporized=""/>
    <tripinfo id="flow_3.1" depart="8.00" departLane="E0_1" departPos="5.10" departSpeed="14.00" departDelay="4.40" arrival="33.00" arrivalLane="E4_0" arrivalPos="57.45" arrivalSpeed="13.24" duration="25.00" routeLength="212.94" waitingTime="0.00" waitingCount="0" stopTime="0.00" timeLoss="8.79" rerouteNo="0" devices="tripinfo_flow_3.1 routing_flow_3.1" vType="DEFAULT_VEHTYPE" speedFactor="1.01" vaporized=""/>
    <tripinfo id="flow_0.4" depart="20.00" departLane="E0_1" departPos="5.10" departSpeed="14.00" departDelay="5.60" arrival="34.00" arrivalLane="E2_1" arrivalPos="30.23" arrivalSpeed="13.47" duration="14.00" routeLength="186.30" waitingTime="0.00" waitingCount="0" stopTime="0.00" timeLoss="0.55" rerouteNo="0" devices="tripinfo_flow_0.4 routing_flow_0.4" vType="DEFAULT_VEHTYPE" speedFactor="1.01" vaporized=""/>
    <tripinfo id="flow_3.3" depart="12.00" departLane="E0_2" departPos="5.10" departSpeed="14.00" departDelay="1.20" arrival="36.00" arrivalLane="E4_0" arrivalPos="57.45" arrivalSpeed="12.90" duration="24.00" routeLength="212.94" waitingTime="0.00" waitingCount="0" stopTime="0.00" timeLoss="7.97" rerouteNo="0" devices="tripinfo_flow_3.3 routing_flow_3.3" vType="DEFAULT_VEHTYPE" speedFactor="1.01" vaporized=""/>
    <tripinfo id="flow_0.6" depart="24.00" departLane="E0_2" departPos="5.10" departSpeed="14.00" departDelay="2.40" arrival="37.00" arrivalLane="E2_2" arrivalPos="30.23" arrivalSpeed="15.26" duration="13.00" routeLength="186.30" waitingTime="0.00" waitingCount="0" stopTime="0.00" timeLoss="0.60" rerouteNo="0" devices="tripinfo_flow_0.6 routing_flow_0.6" vType="DEFAULT_VEHTYPE" speedFactor="1.12" vaporized=""/>
    <tripinfo id="flow_1.0" depart="0.00" departLane="E3_0" departPos="5.10" departSpeed="14.00" departDelay="0.00" arrival="38.00" arrivalLane="E4_0" arrivalPos="57.45" arrivalSpeed="13.93" duration="38.00" routeLength="234.78" waitingTime="7.00" waitingCount="1" stopTime="0.00" timeLoss="20.39" rerouteNo="0" devices="tripinfo_flow_1.0 routing_flow_1.0" vType="DEFAULT_VEHTYPE" speedFactor="1.01" vaporized=""/>
    <tripinfo id="flow_0.5" depart="22.00" departLane="E0_1" departPos="5.10" departSpeed="14.00" departDelay="4.00" arrival="39.00" arrivalLane="E2_1" arrivalPos="30.23" arrivalSpeed="13.47" duration="17.00" routeLength="186.30" waitingTime="0.00" waitingCount="0" stopTime="0.00" timeLoss="2.93" rerouteNo="0" devices="tripinfo_flow_0.5 routing_flow_0.5" vType="DEFAULT_VEHTYPE" speedFactor="1.01" vaporized=""/>
    <tripinfo id="flow_3.4" depart="20.00" departLane="E0_0" departPos="5.10" departSpeed="14.00" departDelay="5.60" arrival="41.00" arrivalLane="E4_0" arrivalPos="57.45" arrivalSpeed="13.66" duration="21.00" routeLength="212.94" waitingTime="0.00" waitingCount="0" stopTime="0.00" timeLoss="5.08" rerouteNo="0" devices="tripinfo_flow_3.4 routing_flow_3.4" vType="DEFAULT_VEHTYPE" speedFactor="1.02" vaporized=""/>
    <tripinfo id="flow_3.5" depart="21.00" departLane="E0_2" departPos="5.10" departSpeed="14.00" departDelay="3.00" arrival="43.00" arrivalLane="E4_0" arrivalPos="57.45" arrivalSpeed="13.50" duration="22.00" routeLength="212.94" waitingTime="0.00" waitingCount="0" stopTime="0.00" timeLoss="6.19" rerouteNo="0" devices="tripinfo_flow_3.5 routing_flow_3.5" vType="DEFAULT_VEHTYPE" speedFactor="1.01" vaporized=""/>
    <tripinfo id="flow_0.8" depart="29.00" departLane="E0_1" departPos="5.10" departSpeed="14.00" departDelay="0.20" arrival="43.00" arrivalLane="E2_1" arrivalPos="30.23" arrivalSpeed="15.42" duration="14.00" routeLength="186.30" waitingTime="0.00" waitingCount="0" stopTime="0.00" timeLoss="2.06" rerouteNo="0" devices="tripinfo_flow_0.8 routing_flow_0.8" vType="DEFAULT_VEHTYPE" speedFactor="1.17" vaporized=""/>
    <tripinfo id="flow_0.7" depart="26.00" departLane="E0_0" departPos="5.10" departSpeed="14.00" departDelay="0.80" arrival="44.00" arrivalLane="E2_0" arrivalPos="30.23" arrivalSpeed="13.82" duration="18.00" routeLength="186.30" waitingTime="0.00" waitingCount="0" stopTime="0.00" timeLoss="4.56" rerouteNo="0" devices="tripinfo_flow_0.7 routing_flow_0.7" vType="DEFAULT_VEHTYPE" speedFactor="1.01" vaporized=""/>
    <tripinfo id="flow_3.6" depart="23.00" departLane="E0_1" departPos="5.10" departSpeed="14.00" departDelay="1.40" arrival="45.00" arrivalLane="E4_0" arrivalPos="57.45" arrivalSpeed="14.43" duration="22.00" routeLength="212.94" waitingTime="0.00" waitingCount="0" stopTime="0.00" timeLoss="7.48" rerouteNo="0" devices="tripinfo_flow_3.6 routing_flow_3.6" vType="DEFAULT_VEHTYPE" speedFactor="1.13" vaporized=""/>
    <tripinfo id="flow_3.7" depart="26.00" departLane="E0_2" departPos="5.10" departSpeed="14.00" departDelay="0.80" arrival="49.00" arrivalLane="E4_0" arrivalPos="57.45" arrivalSpeed="13.10" duration="23.00" routeLength="212.94" waitingTime="0.00" waitingCount="0" stopTime="0.00" timeLoss="7.21" rerouteNo="0" devices="tripinfo_flow_3.7 routing_flow_3.7" vType="DEFAULT_VEHTYPE" speedFactor="1.01" vaporized=""/>
    <tripinfo id="flow_3.8" depart="29.00" departLane="E0_2" departPos="5.10" departSpeed="14.00" departDelay="0.20" arrival="51.00" arrivalLane="E4_0" arrivalPos="57.45" arrivalSpeed="14.23" duration="22.00" routeLength="212.94" waitingTime="0.00" waitingCount="0" stopTime="0.00" timeLoss="7.45" rerouteNo="0" devices="tripinfo_flow_3.8 routing_flow_3.8" vType="DEFAULT_VEHTYPE" speedFactor="1.09" vaporized=""/>
    <tripinfo id="flow_2.1" depart="20.00" departLane="E3_0" departPos="5.10" departSpeed="14.00" departDelay="16.40" arrival="52.00" arrivalLane="E2_1" arrivalPos="30.23" arrivalSpeed="13.41" duration="32.00" routeLength="208.14" waitingTime="8.00" waitingCount="1" stopTime="0.00" timeLoss="16.20" rerouteNo="0" devices="tripinfo_flow_2.1 routing_flow_2.1" vType="DEFAULT_VEHTYPE" speedFactor="1.01" vaporized=""/>
    <tripinfo id="flow_0.9" depart="37.00" departLane="E0_0" departPos="5.10" departSpeed="14.00" departDelay="4.60" arrival="53.00" arrivalLane="E2_0" arrivalPos="30.23" arrivalSpeed="15.55" duration="16.00" routeLength="186.30" waitingTime="0.00" waitingCount="0" stopTime="0.00" timeLoss="3.82" rerouteNo="0" devices="tripinfo_flow_0.9 routing_flow_0.9" vType="DEFAULT_VEHTYPE" speedFactor="1.18" vaporized=""/>
    <tripinfo id="flow_1.1" depart="16.00" departLane="E3_0" departPos="5.10" departSpeed="14.00" departDelay="12.40" arrival="54.00" arrivalLane="E4_0" arrivalPos="57.45" arrivalSpeed="13.93" duration="38.00" routeLength="234.78" waitingTime="8.00" waitingCount="1" stopTime="0.00" timeLoss="20.54" rerouteNo="0" devices="tripinfo_flow_1.1 routing_flow_1.1" vType="DEFAULT_VEHTYPE" speedFactor="1.05" vaporized=""/>
    <tripinfo id="flow_0.10" depart="40.00" departLane="E0_2" departPos="5.10" departSpeed="14.00" departDelay="4.00" arrival="54.00" arrivalLane="E2_2" arrivalPos="30.23" arrivalSpeed="13.16" duration="14.00" routeLength="186.30" waitingTime="0.00" waitingCount="0" stopTime="0.00" timeLoss="0.64" rerouteNo="0" devices="tripinfo_flow_0.10 routing_flow_0.10" vType="DEFAULT_VEHTYPE" speedFactor="1.01" vaporized=""/>
    <tripinfo id="flow_0.11" depart="42.00" departLane="E0_2" departPos="5.10" departSpeed="14.00" departDelay="2.40" arrival="56.00" arrivalLane="E2_2" arrivalPos="30.23" arrivalSpeed="15.10" duration="14.00" routeLength="186.30" waitingTime="0.00" waitingCount="0" stopTime="0.00" timeLoss="1.20" rerouteNo="0" devices="tripinfo_flow_0.11 routing_flow_0.11" vType="DEFAULT_VEHTYPE" speedFactor="1.09" vaporized=""/>
    <tripinfo id="flow_3.10" depart="38.00" departLane="E0_2" departPos="5.10" departSpeed="14.00" departDelay="2.00" arrival="58.00" arrivalLane="E4_0" arrivalPos="57.45" arrivalSpeed="14.38" duration="20.00" routeLength="212.94" waitingTime="0.00" waitingCount="0" stopTime="0.00" timeLoss="4.04" rerouteNo="0" devices="tripinfo_flow_3.10 routing_flow_3.10" vType="DEFAULT_VEHTYPE" speedFactor="1.04" vaporized=""/>
    <tripinfo id="flow_0.12" depart="44.00" departLane="E0_2" departPos="5.10" departSpeed="14.00" departDelay="0.80" arrival="58.00" arrivalLane="E2_2" arrivalPos="30.23" arrivalSpeed="13.11" duration="14.00" routeLength="186.30" waitingTime="0.00" waitingCount="0" stopTime="0.00" timeLoss="0.59" rerouteNo="0" devices="tripinfo_flow_0.12 routing_flow_0.12" vType="DEFAULT_VEHTYPE" speedFactor="1.01" vaporized=""/>
    <tripinfo id="flow_3.9" depart="40.00" departLane="E0_1" departPos="5.10" departSpeed="14.00" departDelay="7.60" arrival="60.00" arrivalLane="E4_0" arrivalPos="57.45" arrivalSpeed="14.05" duration="20.00" routeLength="212.94" waitingTime="0.00" waitingCount="0" stopTime="0.00" timeLoss="4.29" rerouteNo="0" devices="tripinfo_flow_3.9 routing_flow_3.9" vType="DEFAULT_VEHTYPE" speedFactor="1.03" vaporized=""/>
    <tripinfo id="flow_0.13" depart="47.00" departLane="E0_2" departPos="5.10" departSpeed="14.00" departDelay="0.20" arrival="60.00" arrivalLane="E2_2" arrivalPos="30.23" arrivalSpeed="14.02" duration="13.00" routeLength="186.30" waitingTime="0.00" waitingCount="0" stopTime="0.00" timeLoss="0.53" rerouteNo="0" devices="tripinfo_flow_0.13 routing_flow_0.13" vType="DEFAULT_VEHTYPE" speedFactor="1.10" vaporized=""/>
    <tripinfo id="flow_3.11" depart="43.00" departLane="E0_0" departPos="5.10" departSpeed="14.00" departDelay="3.40" arrival="62.00" arrivalLane="E4_0" arrivalPos="57.45" arrivalSpeed="12.84" duration="19.00" routeLength="212.94" waitingTime="0.00" waitingCount="0" stopTime="0.00" timeLoss="3.22" rerouteNo="0" devices="tripinfo_flow_3.11 routing_flow_3.11" vType="DEFAULT_VEHTYPE" speedFactor="1.01" vaporized=""/>
    <tripinfo id="flow_3.12" depart="44.00" departLane="E0_1" departPos="5.10" departSpeed="14.00" departDelay="0.80" arrival="65.00" arrivalLane="E4_0" arrivalPos="57.45" arrivalSpeed="13.32" duration="21.00" routeLength="212.94" waitingTime="0.00" waitingCount="0" stopTime="0.00" timeLoss="4.76" rerouteNo="0" devices="tripinfo_flow_3.12 routing_flow_3.12" vType="DEFAULT_VEHTYPE" speedFactor="1.02" vaporized=""/>
    <tripinfo id="flow_3.13" depart="47.00" departLane="E0_1" departPos="5.10" departSpeed="14.00" departDelay="0.20" arrival="66.00" arrivalLane="E4_0" arrivalPos="57.45" arrivalSpeed="16.05" duration="19.00" routeLength="212.94" waitingTime="0.00" waitingCount="0" stopTime="0.00" timeLoss="6.84" rerouteNo="0" devices="tripinfo_flow_3.13 routing_flow_3.13" vType="DEFAULT_VEHTYPE" speedFactor="1.30" vaporized=""/>
    <tripinfo id="flow_0.15" depart="55.00" departLane="E0_2" departPos="5.10" departSpeed="14.00" departDelay="1.00" arrival="68.00" arrivalLane="E2_2" arrivalPos="30.23" arrivalSpeed="15.25" duration="13.00" routeLength="186.30" waitingTime="0.00" waitingCount="0" stopTime="0.00" timeLoss="0.53" rerouteNo="0" devices="tripinfo_flow_0.15 routing_flow_0.15" vType="DEFAULT_VEHTYPE" speedFactor="1.12" vaporized=""/>
    <tripinfo id="flow_1.2" depart="34.00" departLane="E3_0" departPos="5.10" departSpeed="14.00" departDelay="26.80" arrival="69.00" arrivalLane="E4_0" arrivalPos="57.45" arrivalSpeed="13.99" duration="35.00" routeLength="234.78" waitingTime="8.00" waitingCount="1" stopTime="0.00" timeLoss="18.57" rerouteNo="0" devices="tripinfo_flow_1.2 routing_flow_1.2" vType="DEFAULT_VEHTYPE" speedFactor="1.09" vaporized=""/>
    <tripinfo id="flow_2.2" depart="37.00" departLane="E3_0" departPos="5.10" departSpeed="14.00" departDelay="29.80" arrival="69.00" arrivalLane="E2_0" arrivalPos="30.23" arrivalSpeed="13.81" duration="32.00" routeLength="208.14" waitingTime="8.00" waitingCount="1" stopTime="0.00" timeLoss="16.22" rerouteNo="0" devices="tripinfo_flow_2.2 routing_flow_2.2" vType="DEFAULT_VEHTYPE" speedFactor="1.03" vaporized=""/>
    <tripinfo id="flow_0.14" depart="55.00" departLane="E0_0" departPos="5.10" departSpeed="14.00" departDelay="4.60" arrival="70.00" arrivalLane="E2_0" arrivalPos="30.23" arrivalSpeed="14.74" duration="15.00" routeLength="186.30" waitingTime="0.00" waitingCount="0" stopTime="0.00" timeLoss="3.09" rerouteNo="0" devices="tripinfo_flow_0.14 routing_flow_0.14" vType="DEFAULT_VEHTYPE" speedFactor="1.14" vaporized=""/>
    <tripinfo id="flow_3.14" depart="56.00" departLane="E0_1" departPos="5.10" departSpeed="14.00" departDelay="5.60" arrival="75.00" arrivalLane="E4_0" arrivalPos="57.45" arrivalSpeed="14.38" duration="19.00" routeLength="212.94" waitingTime="0.00" waitingCount="0" stopTime="0.00" timeLoss="3.88" rerouteNo="0" devices="tripinfo_flow_3.14 routing_flow_3.14" vType="DEFAULT_VEHTYPE" speedFactor="1.08" vaporized=""/>
    <tripinfo id="flow_0.16" depart="58.00" departLane="E0_1" departPos="5.10" departSpeed="14.00" departDelay="0.40" arrival="75.00" arrivalLane="E2_1" arrivalPos="30.23" arrivalSpeed="15.51" duration="17.00" routeLength="186.30" waitingTime="0.00" waitingCount="0" stopTime="0.00" timeLoss="4.54" rerouteNo="0" devices="tripinfo_flow_0.16 routing_flow_0.16" vType="DEFAULT_VEHTYPE" speedFactor="1.13" vaporized=""/>
    <tripinfo id="flow_0.17" depart="63.00" departLane="E0_2" departPos="5.10" departSpeed="14.00" departDelay="1.80" arrival="77.00" arrivalLane="E2_2" arrivalPos="30.23" arrivalSpeed="14.09" duration="14.00" routeLength="186.30" waitingTime="0.00" waitingCount="0" stopTime="0.00" timeLoss="0.53" rerouteNo="0" devices="tripinfo_flow_0.17 routing_flow_0.17" vType="DEFAULT_VEHTYPE" speedFactor="1.02" vaporized=""/>
    <tripinfo id="flow_3.16" depart="58.00" departLane="E0_2" departPos="5.10" departSpeed="14.00" departDelay="0.40" arrival="78.00" arrivalLane="E4_0" arrivalPos="57.45" arrivalSpeed="14.09" duration="20.00" routeLength="212.94" waitingTime="0.00" waitingCount="0" stopTime="0.00" timeLoss="4.24" rerouteNo="0" devices="tripinfo_flow_3.16 routing_flow_3.16" vType="DEFAULT_VEHTYPE" speedFactor="1.04" vaporized=""/>
    <tripinfo id="flow_3.15" depart="57.00" departLane="E0_0" departPos="5.10" departSpeed="14.00" departDelay="3.00" arrival="80.00" arrivalLane="E4_0" arrivalPos="57.45" arrivalSpeed="13.54" duration="23.00" routeLength="212.94" waitingTime="0.00" waitingCount="0" stopTime="0.00" timeLoss="6.74" rerouteNo="0" devices="tripinfo_flow_3.15 routing_flow_3.15" vType="DEFAULT_VEHTYPE" speedFactor="1.01" vaporized=""/>
    <tripinfo id="flow_0.18" depart="66.00" departLane="E0_1" departPos="5.10" departSpeed="14.00" departDelay="1.20" arrival="80.00" arrivalLane="E2_1" arrivalPos="30.23" arrivalSpeed="13.85" duration="14.00" routeLength="186.30" waitingTime="0.00" waitingCount="0" stopTime="0.00" timeLoss="0.62" rerouteNo="0" devices="tripinfo_flow_0.18 routing_flow_0.18" vType="DEFAULT_VEHTYPE" speedFactor="1.06" vaporized=""/>
    <tripinfo id="flow_1.3" depart="52.00" departLane="E3_0" departPos="5.10" departSpeed="14.00" departDelay="41.20" arrival="82.00" arrivalLane="E4_0" arrivalPos="57.45" arrivalSpeed="13.87" duration="30.00" routeLength="234.78" waitingTime="3.00" waitingCount="1" stopTime="0.00" timeLoss="11.98" rerouteNo="0" devices="tripinfo_flow_1.3 routing_flow_1.3" vType="DEFAULT_VEHTYPE" speedFactor="1.01" vaporized=""/>
    <tripinfo id="flow_0.19" depart="69.00" departLane="E0_1" departPos="5.10" departSpeed="14.00" departDelay="0.60" arrival="83.00" arrivalLane="E2_1" arrivalPos="30.23" arrivalSpeed="13.85" duration="14.00" routeLength="186.30" waitingTime="0.00" waitingCount="0" stopTime="0.00" timeLoss="0.78" rerouteNo="0" devices="tripinfo_flow_0.19 routing_flow_0.19" vType="DEFAULT_VEHTYPE" speedFactor="1.02" vaporized=""/>
    <tripinfo id="flow_3.17" depart="64.00" departLane="E0_1" departPos="5.10" departSpeed="14.00" departDelay="2.80" arrival="84.00" arrivalLane="E4_0" arrivalPos="57.45" arrivalSpeed="13.49" duration="20.00" routeLength="212.94" waitingTime="0.00" waitingCount="0" stopTime="0.00" timeLoss="4.16" rerouteNo="0" devices="tripinfo_flow_3.17 routing_flow_3.17" vType="DEFAULT_VEHTYPE" speedFactor="1.01" vaporized=""/>
    <tripinfo id="flow_3.18" depart="66.00" departLane="E0_0" departPos="5.10" departSpeed="14.00" departDelay="1.20" arrival="86.00" arrivalLane="E4_0" arrivalPos="57.45" arrivalSpeed="13.61" duration="20.00" routeLength="212.94" waitingTime="0.00" waitingCount="0" stopTime="0.00" timeLoss="4.24" rerouteNo="0" devices="tripinfo_flow_3.18 routing_flow_3.18" vType="DEFAULT_VEHTYPE" speedFactor="1.03" vaporized=""/>
    <tripinfo id="flow_0.20" depart="72.00" departLane="E0_2" departPos="5.10" departSpeed="14.00" departDelay="0.00" arrival="86.00" arrivalLane="E2_2" arrivalPos="30.23" arrivalSpeed="13.24" duration="14.00" routeLength="186.30" waitingTime="0.00" waitingCount="0" stopTime="0.00" timeLoss="0.68" rerouteNo="0" devices="tripinfo_flow_0.20 routing_flow_0.20" vType="DEFAULT_VEHTYPE" speedFactor="1.03" vaporized=""/>
    <tripinfo id="flow_3.19" depart="69.00" departLane="E0_0" departPos="5.10" departSpeed="14.00" departDelay="0.60" arrival="89.00" arrivalLane="E4_0" arrivalPos="57.45" arrivalSpeed="13.12" duration="20.00" routeLength="212.94" waitingTime="0.00" waitingCount="0" stopTime="0.00" timeLoss="4.13" rerouteNo="0" devices="tripinfo_flow_3.19 routing_flow_3.19" vType="DEFAULT_VEHTYPE" speedFactor="1.03" vaporized=""/>
    <tripinfo id="flow_2.3" depart="55.00" departLane="E3_0" departPos="5.10" departSpeed="14.00" departDelay="44.20" arrival="90.00" arrivalLane="E2_0" arrivalPos="30.23" arrivalSpeed="13.43" duration="35.00" routeLength="208.14" waitingTime="8.00" waitingCount="1" stopTime="0.00" timeLoss="19.46" rerouteNo="0" devices="tripinfo_flow_2.3 routing_flow_2.3" vType="DEFAULT_VEHTYPE" speedFactor="1.01" vaporized=""/>
    <tripinfo id="flow_3.20" depart="72.00" departLane="E0_0" departPos="5.10" departSpeed="14.00" departDelay="0.00" arrival="90.00" arrivalLane="E4_0" arrivalPos="57.45" arrivalSpeed="14.70" duration="18.00" routeLength="212.94" waitingTime="0.00" waitingCount="0" stopTime="0.00" timeLoss="4.22" rerouteNo="0" devices="tripinfo_flow_3.20 routing_flow_3.20" vType="DEFAULT_VEHTYPE" speedFactor="1.15" vaporized=""/>
    <tripinfo id="flow_0.22" depart="80.00" departLane="E0_0" departPos="5.10" departSpeed="14.00" departDelay="0.80" arrival="95.00" arrivalLane="E2_0" arrivalPos="30.23" arrivalSpeed="12.92" duration="15.00" routeLength="186.30" waitingTime="0.00" waitingCount="0" stopTime="0.00" timeLoss="1.50" rerouteNo="0" devices="tripinfo_flow_0.22 routing_flow_0.22" vType="DEFAULT_VEHTYPE" speedFactor="1.02" vaporized=""/>
    <tripinfo id="flow_1.4" depart="62.00" departLane="E3_0" departPos="5.10" departSpeed="14.00" departDelay="47.60" arrival="96.00" arrivalLane="E4_0" arrivalPos="57.45" arrivalSpeed="12.80" duration="34.00" routeLength="234.78" waitingTime="7.00" waitingCount="1" stopTime="0.00" timeLoss="16.19" rerouteNo="0" devices="tripinfo_flow_1.4 routing_flow_1.4" vType="DEFAULT_VEHTYPE" speedFactor="1.01" vaporized=""/>
    <tripinfo id="flow_0.21" depart="80.00" departLane="E0_1" departPos="5.10" departSpeed="14.00" departDelay="4.40" arrival="96.00" arrivalLane="E2_1" arrivalPos="30.23" arrivalSpeed="13.70" duration="16.00" routeLength="186.30" waitingTime="0.00" waitingCount="0" stopTime="0.00" timeLoss="2.47" rerouteNo="0" devices="tripinfo_flow_0.21 routing_flow_0.21" vType="DEFAULT_VEHTYPE" speedFactor="1.01" vaporized=""/>
    <tripinfo id="flow_0.23" depart="84.00" departLane="E0_1" departPos="5.10" departSpeed="14.00" departDelay="1.20" arrival="99.00" arrivalLane="E2_1" arrivalPos="30.23" arrivalSpeed="12.91" duration="15.00" routeLength="186.30" waitingTime="0.00" waitingCount="0" stopTime="0.00" timeLoss="1.57" rerouteNo="0" devices="tripinfo_flow_0.23 routing_flow_0.23" vType="DEFAULT_VEHTYPE" speedFactor="1.01" vaporized=""/>
    <tripinfo id="flow_3.21" depart="80.00" departLane="E0_2" departPos="5.10" departSpeed="14.00" departDelay="4.40" arrival="100.00" arrivalLane="E4_0" arrivalPos="57.45" arrivalSpeed="12.90" duration="20.00" routeLength="212.94" waitingTime="0.00" waitingCount="0" stopTime="0.00" timeLoss="3.97" rerouteNo="0" devices="tripinfo_flow_3.21 routing_flow_3.21" vType="DEFAULT_VEHTYPE" speedFactor="1.01" vaporized=""/>
    <tripinfo id="flow_3.22" depart="82.00" departLane="E0_2" departPos="5.10" departSpeed="14.00" departDelay="2.80" arrival="102.00" arrivalLane="E4_0" arrivalPos="57.45" arrivalSpeed="14.87" duration="20.00" routeLength="212.94" waitingTime="0.00" waitingCount="0" stopTime="0.00" timeLoss="4.62" rerouteNo="0" devices="tripinfo_flow_3.22 routing_flow_3.22" vType="DEFAULT_VEHTYPE" speedFactor="1.08" vaporized=""/>
    <tripinfo id="flow_2.4" depart="76.00" departLane="E3_0" departPos="5.10" departSpeed="14.00" departDelay="61.60" arrival="104.00" arrivalLane="E2_0" arrivalPos="30.23" arrivalSpeed="13.94" duration="28.00" routeLength="208.14" waitingTime="4.00" waitingCount="1" stopTime="0.00" timeLoss="14.49" rerouteNo="0" devices="tripinfo_flow_2.4 routing_flow_2.4" vType="DEFAULT_VEHTYPE" speedFactor="1.16" vaporized=""/>
    <tripinfo id="flow_3.23" depart="83.00" departLane="E0_0" departPos="5.10" departSpeed="14.00" departDelay="0.20" arrival="105.00" arrivalLane="E4_0" arrivalPos="57.45" arrivalSpeed="12.76" duration="22.00" routeLength="212.94" waitingTime="0.00" waitingCount="0" stopTime="0.00" timeLoss="5.31" rerouteNo="0" devices="tripinfo_flow_3.23 routing_flow_3.23" vType="DEFAULT_VEHTYPE" speedFactor="1.01" vaporized=""/>
    <tripinfo id="flow_0.24" depart="92.00" departLane="E0_1" departPos="5.10" departSpeed="14.00" departDelay="5.60" arrival="108.00" arrivalLane="E2_1" arrivalPos="30.23" arrivalSpeed="12.72" duration="16.00" routeLength="186.30" waitingTime="0.00" waitingCount="0" stopTime="0.00" timeLoss="2.27" rerouteNo="0" devices="tripinfo_flow_0.24 routing_flow_0.24" vType="DEFAULT_VEHTYPE" speedFactor="1.01" vaporized=""/>
    <tripinfo id="flow_1.5" depart="79.00" departLane="E3_0" departPos="5.10" departSpeed="14.00" departDelay="61.00" arrival="109.00" arrivalLane="E4_0" arrivalPos="57.45" arrivalSpeed="13.55" duration="30.00" routeLength="234.78" waitingTime="2.00" waitingCount="1" stopTime="0.00" timeLoss="11.93" rerouteNo="0" devices="tripinfo_flow_1.5 routing_flow_1.5" vType="DEFAULT_VEHTYPE" speedFactor="1.01" vaporized=""/>
    <tripinfo id="flow_0.26" depart="96.00" departLane="E0_1" departPos="5.10" departSpeed="14.00" departDelay="2.40" arrival="110.00" arrivalLane="E2_1" arrivalPos="30.23" arrivalSpeed="13.64" duration="14.00" routeLength="186.30" waitingTime="0.00" waitingCount="0" stopTime="0.00" timeLoss="0.88" rerouteNo="0" devices="tripinfo_flow_0.26 routing_flow_0.26" vType="DEFAULT_VEHTYPE" speedFactor="1.07" vaporized=""/>
    <tripinfo id="flow_0.25" depart="94.00" departLane="E0_0" departPos="5.10" departSpeed="14.00" departDelay="4.00" arrival="111.00" arrivalLane="E2_1" arrivalPos="30.23" arrivalSpeed="15.02" duration="17.00" routeLength="186.30" waitingTime="0.00" waitingCount="0" stopTime="0.00" timeLoss="4.86" rerouteNo="0" devices="tripinfo_flow_0.25 routing_flow_0.25" vType="DEFAULT_VEHTYPE" speedFactor="1.11" vaporized=""/>
    <tripinfo id="flow_3.25" depart="92.00" departLane="E0_2" departPos="5.10" departSpeed="14.00" departDelay="2.00" arrival="111.00" arrivalLane="E4_0" arrivalPos="57.45" arrivalSpeed="13.97" duration="19.00" routeLength="212.94" waitingTime="0.00" waitingCount="0" stopTime="0.00" timeLoss="3.36" rerouteNo="0" devices="tripinfo_flow_3.25 routing_flow_3.25" vType="DEFAULT_VEHTYPE" speedFactor="1.05" vaporized=""/>
    <tripinfo id="flow_0.27" depart="98.00" departLane="E0_2" departPos="5.10" departSpeed="14.00" departDelay="0.80" arrival="112.00" arrivalLane="E2_2" arrivalPos="30.23" arrivalSpeed="13.75" duration="14.00" routeLength="186.30" waitingTime="0.00" waitingCount="0" stopTime="0.00" timeLoss="0.63" rerouteNo="0" devices="tripinfo_flow_0.27 routing_flow_0.27" vType="DEFAULT_VEHTYPE" speedFactor="1.01" vaporized=""/>
    <tripinfo id="flow_3.24" depart="92.00" departLane="E0_0" departPos="5.10" departSpeed="14.00" departDelay="5.60" arrival="113.00" arrivalLane="E4_0" arrivalPos="57.45" arrivalSpeed="14.17" duration="21.00" routeLength="212.94" waitingTime="0.00" waitingCount="0" stopTime="0.00" timeLoss="5.83" rerouteNo="0" devices="tripinfo_flow_3.24 routing_flow_3.24" vType="DEFAULT_VEHTYPE" speedFactor="1.07" vaporized=""/>
    <tripinfo id="flow_0.28" depart="101.00" departLane="E0_1" departPos="5.10" departSpeed="14.00" departDelay="0.20" arrival="115.00" arrivalLane="E2_1" arrivalPos="30.23" arrivalSpeed="13.06" duration="14.00" routeLength="186.30" waitingTime="0.00" waitingCount="0" stopTime="0.00" timeLoss="0.60" rerouteNo="0" devices="tripinfo_flow_0.28 routing_flow_0.28" vType="DEFAULT_VEHTYPE" speedFactor="1.01" vaporized=""/>
    <tripinfo id="flow_3.26" depart="97.00" departLane="E0_0" departPos="5.10" departSpeed="14.00" departDelay="3.40" arrival="116.00" arrivalLane="E4_0" arrivalPos="57.45" arrivalSpeed="13.93" duration="19.00" routeLength="212.94" waitingTime="0.00" waitingCount="0" stopTime="0.00" timeLoss="3.69" rerouteNo="0" devices="tripinfo_flow_3.26 routing_flow_3.26" vType="DEFAULT_VEHTYPE" speedFactor="1.06" vaporized=""/>
    <tripinfo id="flow_3.27" depart="99.00" departLane="E0_1" departPos="5.10" departSpeed="14.00" departDelay="1.80" arrival="118.00" arrivalLane="E4_0" arrivalPos="57.45" arrivalSpeed="14.56" duration="19.00" routeLength="212.94" waitingTime="0.00" waitingCount="0" stopTime="0.00" timeLoss="3.97" rerouteNo="0" devices="tripinfo_flow_3.27 routing_flow_3.27" vType="DEFAULT_VEHTYPE" speedFactor="1.10" vaporized=""/>
    <tripinfo id="flow_2.5" depart="88.00" departLane="E3_0" departPos="5.10" departSpeed="14.00" departDelay="70.00" arrival="120.00" arrivalLane="E2_0" arrivalPos="30.23" arrivalSpeed="14.18" duration="32.00" routeLength="208.14" waitingTime="10.00" waitingCount="1" stopTime="0.00" timeLoss="17.58" rerouteNo="0" devices="tripinfo_flow_2.5 routing_flow_2.5" vType="DEFAULT_VEHTYPE" speedFactor="1.10" vaporized=""/>